36
energy=-177.8646706500 step=5485 source="vasp_steps_fixed" Lattice="10.0000000000 0.0000000000 0.0000000000 0.0000000000 10.0000000000 0.0000000000 0.0000000000 0.0000000000 10.0000000000" pbc="T T T"
H 3.3856489000 1.1679853000 3.7010907600
H 3.2058314400 5.6454079700 0.1421594800
H 4.0022502300 0.3527893100 2.0255032400
H 2.3714373100 6.6517003000 5.2928793700
H 5.7702169900 3.4462338800 6.8274776000
H 1.0843567100 3.2894595000 3.2313197500
H 0.0334217100 4.6151253200 5.0656848200
H 0.1824574000 2.2972553000 1.3583449200
H 3.9844281600 2.4060197100 2.9263923700
H 2.5163360700 4.2717616400 -0.3314228800
H 5.0972188300 6.3124770900 1.1184234000
H 1.2492577700 0.8436117400 4.7668501000
H 4.6195770500 2.5360384900 0.5267465500
H 2.1919847400 4.1061802700 3.8804000800
H 5.5720259100 5.5452966300 5.4503476700
H 0.9202572000 0.8986664500 1.9423800400
H 5.6159889400 1.1886736000 4.2201981500
H 1.0984803200 5.5432138000 0.7780390200
H 4.2102260700 4.4044610000 2.5890212300
H 2.7588775100 1.8410515500 6.0630556900
H 5.9919512800 1.4876990400 5.7138394400
H 7.2852984300 5.3013890300 2.1999376400
H 4.6872563000 4.2191049700 4.0613205400
H 2.2476459700 2.2352398800 0.8781130800
O 6.1600790500 0.7908323400 4.9763763800
O 7.0900057200 5.8939868400 1.4287369000
O 4.0058027200 3.9095850000 3.4072768400
O 2.9123686100 2.4556884900 0.1114715300
O 4.1631492100 1.4796519000 3.1869098300
O 2.4740443700 5.2527926200 -0.3895279100
O 4.1287315200 6.2947572600 1.3417328600
O 2.2435518900 0.8064169900 4.8170239400
O 5.6464777300 2.5625319700 0.4933149400
O 1.2237434800 4.2132675800 3.6125002700
O 5.7913602900 4.6008278300 5.4454591300
O 1.0436589400 1.8946169700 1.9204499500
36
energy=-177.8183062400 step=6988 source="vasp_steps_fixed" Lattice="10.0000000000 0.0000000000 0.0000000000 0.0000000000 10.0000000000 0.0000000000 0.0000000000 0.0000000000 10.0000000000" pbc="T T T"
H 3.5595128200 1.2118541300 3.8126078300
H 2.9774411400 5.6737040700 0.2978479400
H 4.5143795300 0.3959918300 1.7491859700
H 2.2505609900 6.7537896300 5.3724527200
H 5.7342200200 3.2996243400 6.7325985800
H 1.1061042200 3.3313857900 3.3684672200
H 0.0936160500 4.5657323800 4.9539730800
H 0.1696112300 2.1318997100 1.2953261500
H 3.9853529700 2.4616742000 2.9592709200
H 2.5487834900 4.2379544800 -0.3320870700
H 5.0069371500 6.4480798300 1.0357427100
H 1.3295594800 0.7736865100 4.6735307000
H 4.5716920300 2.4845695400 0.5761815400
H 2.2131740400 4.2214379200 3.8663022300
H 5.6935743500 5.4336556000 5.5128306600
H 0.8617930200 0.8504056200 1.9339918200
H 5.6916765900 1.1593111900 4.3318540800
H 1.1339517500 5.5569810400 0.8160204300
H 4.2014574000 4.4448334200 2.5607421100
H 2.8904251600 1.8367086400 6.0898761700
H 6.0456536300 1.4586269700 5.8289998700
H 7.3660448900 5.1833961100 2.2934538100
H 4.7652287400 4.2434179500 4.0891905800
H 2.2280744600 2.1378512900 0.8898891300
O 6.2149482100 0.7696261700 5.0803016200
O 7.1434651000 5.8254612300 1.4822827600
O 4.0094693900 3.9336544200 3.3953138500
O 2.9066175500 2.3913673800 0.1170097200
O 4.1789073200 1.4976470300 3.2142602200
O 2.4821009500 5.2136205700 -0.3767124100
O 4.0690660300 6.3519858200 1.3044001000
O 2.3062182400 0.7494455800 4.7211389800
O 5.6200778800 2.4506919700 0.5112511500
O 1.2368137400 4.2981370400 3.5596895800
O 5.8708398200 4.5258384000 5.4877704500
O 1.0052332700 1.8233957100 1.9032578100
